file 16404239 1566569481                                        
version 2
run General-0-20190823-10:11:01-3710
attr configname General
attr datetime 20190823-10:11:01
attr experiment General
attr inifile HierarchicalNetwork.ini
attr iterationvars ""
attr iterationvars2 $repetition=0
attr measurement ""
attr network OLSR
attr processid 3710
attr repetition 0
attr replication #0
attr resultdir results
attr runnumber 0
attr seedset 0

vector 13  OLSR.gw[0].wlan[0].mgmt  dataQueueLen:vector  ETV
attr interpolationmode  sample-hold
attr title  "data queue length, vector"
vector 23  OLSR.gw[0].wlan[1].mgmt  dataQueueLen:vector  ETV
attr interpolationmode  sample-hold
attr title  "data queue length, vector"
vector 46  OLSR.gw[1].wlan[0].mgmt  dataQueueLen:vector  ETV
attr interpolationmode  sample-hold
attr title  "data queue length, vector"
vector 56  OLSR.gw[1].wlan[1].mgmt  dataQueueLen:vector  ETV
attr interpolationmode  sample-hold
attr title  "data queue length, vector"
vector 79  OLSR.gw[2].wlan[0].mgmt  dataQueueLen:vector  ETV
attr interpolationmode  sample-hold
attr title  "data queue length, vector"
vector 89  OLSR.gw[2].wlan[1].mgmt  dataQueueLen:vector  ETV
attr interpolationmode  sample-hold
attr title  "data queue length, vector"
vector 112  OLSR.host[0].wlan[0].mgmt  dataQueueLen:vector  ETV
attr interpolationmode  sample-hold
attr title  "data queue length, vector"
vector 135  OLSR.host[1].wlan[0].mgmt  dataQueueLen:vector  ETV
attr interpolationmode  sample-hold
attr title  "data queue length, vector"
vector 158  OLSR.host[2].wlan[0].mgmt  dataQueueLen:vector  ETV
attr interpolationmode  sample-hold
attr title  "data queue length, vector"
vector 181  OLSR.host[3].wlan[0].mgmt  dataQueueLen:vector  ETV
attr interpolationmode  sample-hold
attr title  "data queue length, vector"
vector 204  OLSR.host[4].wlan[0].mgmt  dataQueueLen:vector  ETV
attr interpolationmode  sample-hold
attr title  "data queue length, vector"
vector 215  OLSR.gw[0].wlan[0].mac  RadioState  ETV
attr enum  "IDLE=0, OFF=4, RECV=1, SLEEP=3, TRANSMIT=2"
attr enumname  RadioState
vector 214  OLSR.gw[0].wlan[0].mac  State  ETV
attr enum  "BACKOFF=3, DEFER=1, IDLE=0, RECEIVE=8, WAITACK=4, WAITAIFS=2, WAITCTS=6, WAITMULTICAST=5, WAITSIFS=7"
attr enumname  Ieee80211Mac
vector 221  OLSR.gw[0].wlan[1].mac  RadioState  ETV
attr enum  "IDLE=0, OFF=4, RECV=1, SLEEP=3, TRANSMIT=2"
attr enumname  RadioState
vector 220  OLSR.gw[0].wlan[1].mac  State  ETV
attr enum  "BACKOFF=3, DEFER=1, IDLE=0, RECEIVE=8, WAITACK=4, WAITAIFS=2, WAITCTS=6, WAITMULTICAST=5, WAITSIFS=7"
attr enumname  Ieee80211Mac
vector 227  OLSR.gw[1].wlan[0].mac  RadioState  ETV
attr enum  "IDLE=0, OFF=4, RECV=1, SLEEP=3, TRANSMIT=2"
attr enumname  RadioState
vector 226  OLSR.gw[1].wlan[0].mac  State  ETV
attr enum  "BACKOFF=3, DEFER=1, IDLE=0, RECEIVE=8, WAITACK=4, WAITAIFS=2, WAITCTS=6, WAITMULTICAST=5, WAITSIFS=7"
attr enumname  Ieee80211Mac
vector 233  OLSR.gw[1].wlan[1].mac  RadioState  ETV
attr enum  "IDLE=0, OFF=4, RECV=1, SLEEP=3, TRANSMIT=2"
attr enumname  RadioState
vector 232  OLSR.gw[1].wlan[1].mac  State  ETV
attr enum  "BACKOFF=3, DEFER=1, IDLE=0, RECEIVE=8, WAITACK=4, WAITAIFS=2, WAITCTS=6, WAITMULTICAST=5, WAITSIFS=7"
attr enumname  Ieee80211Mac
vector 239  OLSR.gw[2].wlan[0].mac  RadioState  ETV
attr enum  "IDLE=0, OFF=4, RECV=1, SLEEP=3, TRANSMIT=2"
attr enumname  RadioState
vector 238  OLSR.gw[2].wlan[0].mac  State  ETV
attr enum  "BACKOFF=3, DEFER=1, IDLE=0, RECEIVE=8, WAITACK=4, WAITAIFS=2, WAITCTS=6, WAITMULTICAST=5, WAITSIFS=7"
attr enumname  Ieee80211Mac
vector 245  OLSR.gw[2].wlan[1].mac  RadioState  ETV
attr enum  "IDLE=0, OFF=4, RECV=1, SLEEP=3, TRANSMIT=2"
attr enumname  RadioState
vector 244  OLSR.gw[2].wlan[1].mac  State  ETV
attr enum  "BACKOFF=3, DEFER=1, IDLE=0, RECEIVE=8, WAITACK=4, WAITAIFS=2, WAITCTS=6, WAITMULTICAST=5, WAITSIFS=7"
attr enumname  Ieee80211Mac
vector 251  OLSR.host[0].wlan[0].mac  RadioState  ETV
attr enum  "IDLE=0, OFF=4, RECV=1, SLEEP=3, TRANSMIT=2"
attr enumname  RadioState
vector 250  OLSR.host[0].wlan[0].mac  State  ETV
attr enum  "BACKOFF=3, DEFER=1, IDLE=0, RECEIVE=8, WAITACK=4, WAITAIFS=2, WAITCTS=6, WAITMULTICAST=5, WAITSIFS=7"
attr enumname  Ieee80211Mac
vector 257  OLSR.host[1].wlan[0].mac  RadioState  ETV
attr enum  "IDLE=0, OFF=4, RECV=1, SLEEP=3, TRANSMIT=2"
attr enumname  RadioState
vector 256  OLSR.host[1].wlan[0].mac  State  ETV
attr enum  "BACKOFF=3, DEFER=1, IDLE=0, RECEIVE=8, WAITACK=4, WAITAIFS=2, WAITCTS=6, WAITMULTICAST=5, WAITSIFS=7"
attr enumname  Ieee80211Mac
vector 263  OLSR.host[2].wlan[0].mac  RadioState  ETV
attr enum  "IDLE=0, OFF=4, RECV=1, SLEEP=3, TRANSMIT=2"
attr enumname  RadioState
vector 262  OLSR.host[2].wlan[0].mac  State  ETV
attr enum  "BACKOFF=3, DEFER=1, IDLE=0, RECEIVE=8, WAITACK=4, WAITAIFS=2, WAITCTS=6, WAITMULTICAST=5, WAITSIFS=7"
attr enumname  Ieee80211Mac
vector 269  OLSR.host[3].wlan[0].mac  RadioState  ETV
attr enum  "IDLE=0, OFF=4, RECV=1, SLEEP=3, TRANSMIT=2"
attr enumname  RadioState
vector 268  OLSR.host[3].wlan[0].mac  State  ETV
attr enum  "BACKOFF=3, DEFER=1, IDLE=0, RECEIVE=8, WAITACK=4, WAITAIFS=2, WAITCTS=6, WAITMULTICAST=5, WAITSIFS=7"
attr enumname  Ieee80211Mac
vector 275  OLSR.host[4].wlan[0].mac  RadioState  ETV
attr enum  "IDLE=0, OFF=4, RECV=1, SLEEP=3, TRANSMIT=2"
attr enumname  RadioState
vector 274  OLSR.host[4].wlan[0].mac  State  ETV
attr enum  "BACKOFF=3, DEFER=1, IDLE=0, RECEIVE=8, WAITACK=4, WAITAIFS=2, WAITCTS=6, WAITMULTICAST=5, WAITSIFS=7"
attr enumname  Ieee80211Mac
vector 19  OLSR.gw[0].wlan[0].radio  bitrate:vector  ETV
attr interpolationmode  sample-hold
attr title  "tx bitrate, vector"
attr unit  bps
vector 21  OLSR.gw[0].wlan[0].radio  radioState:vector  ETV
attr interpolationmode  sample-hold
attr title  "radio state (enum), vector"
vector 20  OLSR.gw[0].wlan[0].radio  channelNo:vector  ETV
attr interpolationmode  sample-hold
attr title  "channel no, vector"
vector 29  OLSR.gw[0].wlan[1].radio  bitrate:vector  ETV
attr interpolationmode  sample-hold
attr title  "tx bitrate, vector"
attr unit  bps
vector 31  OLSR.gw[0].wlan[1].radio  radioState:vector  ETV
attr interpolationmode  sample-hold
attr title  "radio state (enum), vector"
vector 30  OLSR.gw[0].wlan[1].radio  channelNo:vector  ETV
attr interpolationmode  sample-hold
attr title  "channel no, vector"
vector 52  OLSR.gw[1].wlan[0].radio  bitrate:vector  ETV
attr interpolationmode  sample-hold
attr title  "tx bitrate, vector"
attr unit  bps
vector 54  OLSR.gw[1].wlan[0].radio  radioState:vector  ETV
attr interpolationmode  sample-hold
attr title  "radio state (enum), vector"
vector 53  OLSR.gw[1].wlan[0].radio  channelNo:vector  ETV
attr interpolationmode  sample-hold
attr title  "channel no, vector"
vector 62  OLSR.gw[1].wlan[1].radio  bitrate:vector  ETV
attr interpolationmode  sample-hold
attr title  "tx bitrate, vector"
attr unit  bps
vector 64  OLSR.gw[1].wlan[1].radio  radioState:vector  ETV
attr interpolationmode  sample-hold
attr title  "radio state (enum), vector"
vector 63  OLSR.gw[1].wlan[1].radio  channelNo:vector  ETV
attr interpolationmode  sample-hold
attr title  "channel no, vector"
vector 85  OLSR.gw[2].wlan[0].radio  bitrate:vector  ETV
attr interpolationmode  sample-hold
attr title  "tx bitrate, vector"
attr unit  bps
vector 87  OLSR.gw[2].wlan[0].radio  radioState:vector  ETV
attr interpolationmode  sample-hold
attr title  "radio state (enum), vector"
vector 86  OLSR.gw[2].wlan[0].radio  channelNo:vector  ETV
attr interpolationmode  sample-hold
attr title  "channel no, vector"
vector 95  OLSR.gw[2].wlan[1].radio  bitrate:vector  ETV
attr interpolationmode  sample-hold
attr title  "tx bitrate, vector"
attr unit  bps
vector 97  OLSR.gw[2].wlan[1].radio  radioState:vector  ETV
attr interpolationmode  sample-hold
attr title  "radio state (enum), vector"
vector 96  OLSR.gw[2].wlan[1].radio  channelNo:vector  ETV
attr interpolationmode  sample-hold
attr title  "channel no, vector"
vector 118  OLSR.host[0].wlan[0].radio  bitrate:vector  ETV
attr interpolationmode  sample-hold
attr title  "tx bitrate, vector"
attr unit  bps
vector 120  OLSR.host[0].wlan[0].radio  radioState:vector  ETV
attr interpolationmode  sample-hold
attr title  "radio state (enum), vector"
vector 119  OLSR.host[0].wlan[0].radio  channelNo:vector  ETV
attr interpolationmode  sample-hold
attr title  "channel no, vector"
vector 141  OLSR.host[1].wlan[0].radio  bitrate:vector  ETV
attr interpolationmode  sample-hold
attr title  "tx bitrate, vector"
attr unit  bps
vector 143  OLSR.host[1].wlan[0].radio  radioState:vector  ETV
attr interpolationmode  sample-hold
attr title  "radio state (enum), vector"
vector 142  OLSR.host[1].wlan[0].radio  channelNo:vector  ETV
attr interpolationmode  sample-hold
attr title  "channel no, vector"
vector 164  OLSR.host[2].wlan[0].radio  bitrate:vector  ETV
attr interpolationmode  sample-hold
attr title  "tx bitrate, vector"
attr unit  bps
vector 166  OLSR.host[2].wlan[0].radio  radioState:vector  ETV
attr interpolationmode  sample-hold
attr title  "radio state (enum), vector"
vector 165  OLSR.host[2].wlan[0].radio  channelNo:vector  ETV
attr interpolationmode  sample-hold
attr title  "channel no, vector"
vector 187  OLSR.host[3].wlan[0].radio  bitrate:vector  ETV
attr interpolationmode  sample-hold
attr title  "tx bitrate, vector"
attr unit  bps
vector 189  OLSR.host[3].wlan[0].radio  radioState:vector  ETV
attr interpolationmode  sample-hold
attr title  "radio state (enum), vector"
vector 188  OLSR.host[3].wlan[0].radio  channelNo:vector  ETV
attr interpolationmode  sample-hold
attr title  "channel no, vector"
vector 210  OLSR.host[4].wlan[0].radio  bitrate:vector  ETV
attr interpolationmode  sample-hold
attr title  "tx bitrate, vector"
attr unit  bps
vector 212  OLSR.host[4].wlan[0].radio  radioState:vector  ETV
attr interpolationmode  sample-hold
attr title  "radio state (enum), vector"
vector 211  OLSR.host[4].wlan[0].radio  channelNo:vector  ETV
attr interpolationmode  sample-hold
attr title  "channel no, vector"
vector 185  OLSR.host[3].wlan[0].mac  rcvdPkFromHL:vector(packetBytes)  ETV
attr interpolationmode  none
attr source  packetReceivedFromUpper
attr title  "packets received from higher layer, vector(packetBytes)"
vector 271  OLSR.host[3].wlan[0].mac  "throughput AC0"  ETV
vector 184  OLSR.host[3].wlan[0].mac  sentDownPk:vector(packetBytes)  ETV
attr interpolationmode  none
attr source  packetSentToLower
attr title  "packets sent to lower layer, vector(packetBytes)"
vector 265  OLSR.host[2].wlan[0].mac  "throughput AC0"  ETV
vector 277  OLSR.host[4].wlan[0].mac  "throughput AC0"  ETV
vector 267  OLSR.host[2].wlan[0].radio  snirVector  ETV
vector 279  OLSR.host[4].wlan[0].radio  snirVector  ETV
vector 163  OLSR.host[2].wlan[0].mac  rcvdPkFromLL:vector(packetBytes)  ETV
attr interpolationmode  none
attr source  packetReceivedFromLower
attr title  "packets received from lower layer, vector(packetBytes)"
vector 160  OLSR.host[2].wlan[0].mac  passedUpPk:vector(packetBytes)  ETV
attr interpolationmode  none
attr source  packetSentToUpper
attr title  "packets passed to higher layer, vector(packetBytes)"
vector 209  OLSR.host[4].wlan[0].mac  rcvdPkFromLL:vector(packetBytes)  ETV
attr interpolationmode  none
attr source  packetReceivedFromLower
attr title  "packets received from lower layer, vector(packetBytes)"
vector 206  OLSR.host[4].wlan[0].mac  passedUpPk:vector(packetBytes)  ETV
attr interpolationmode  none
attr source  packetSentToUpper
attr title  "packets passed to higher layer, vector(packetBytes)"
vector 27  OLSR.gw[0].wlan[1].mac  rcvdPkFromHL:vector(packetBytes)  ETV
attr interpolationmode  none
attr source  packetReceivedFromUpper
attr title  "packets received from higher layer, vector(packetBytes)"
vector 223  OLSR.gw[0].wlan[1].mac  "throughput AC0"  ETV
vector 26  OLSR.gw[0].wlan[1].mac  sentDownPk:vector(packetBytes)  ETV
attr interpolationmode  none
attr source  packetSentToLower
attr title  "packets sent to lower layer, vector(packetBytes)"
vector 235  OLSR.gw[1].wlan[1].mac  "throughput AC0"  ETV
vector 237  OLSR.gw[1].wlan[1].radio  snirVector  ETV
vector 61  OLSR.gw[1].wlan[1].mac  rcvdPkFromLL:vector(packetBytes)  ETV
attr interpolationmode  none
attr source  packetReceivedFromLower
attr title  "packets received from lower layer, vector(packetBytes)"
vector 58  OLSR.gw[1].wlan[1].mac  passedUpPk:vector(packetBytes)  ETV
attr interpolationmode  none
attr source  packetSentToUpper
attr title  "packets passed to higher layer, vector(packetBytes)"
vector 60  OLSR.gw[1].wlan[1].mac  rcvdPkFromHL:vector(packetBytes)  ETV
attr interpolationmode  none
attr source  packetReceivedFromUpper
attr title  "packets received from higher layer, vector(packetBytes)"
vector 59  OLSR.gw[1].wlan[1].mac  sentDownPk:vector(packetBytes)  ETV
attr interpolationmode  none
attr source  packetSentToLower
attr title  "packets sent to lower layer, vector(packetBytes)"
vector 247  OLSR.gw[2].wlan[1].mac  "throughput AC0"  ETV
vector 225  OLSR.gw[0].wlan[1].radio  snirVector  ETV
vector 249  OLSR.gw[2].wlan[1].radio  snirVector  ETV
vector 28  OLSR.gw[0].wlan[1].mac  rcvdPkFromLL:vector(packetBytes)  ETV
attr interpolationmode  none
attr source  packetReceivedFromLower
attr title  "packets received from lower layer, vector(packetBytes)"
vector 25  OLSR.gw[0].wlan[1].mac  passedUpPk:vector(packetBytes)  ETV
attr interpolationmode  none
attr source  packetSentToUpper
attr title  "packets passed to higher layer, vector(packetBytes)"
vector 94  OLSR.gw[2].wlan[1].mac  rcvdPkFromLL:vector(packetBytes)  ETV
attr interpolationmode  none
attr source  packetReceivedFromLower
attr title  "packets received from lower layer, vector(packetBytes)"
vector 91  OLSR.gw[2].wlan[1].mac  passedUpPk:vector(packetBytes)  ETV
attr interpolationmode  none
attr source  packetSentToUpper
attr title  "packets passed to higher layer, vector(packetBytes)"
vector 83  OLSR.gw[2].wlan[0].mac  rcvdPkFromHL:vector(packetBytes)  ETV
attr interpolationmode  none
attr source  packetReceivedFromUpper
attr title  "packets received from higher layer, vector(packetBytes)"
vector 241  OLSR.gw[2].wlan[0].mac  "throughput AC0"  ETV
vector 82  OLSR.gw[2].wlan[0].mac  sentDownPk:vector(packetBytes)  ETV
attr interpolationmode  none
attr source  packetSentToLower
attr title  "packets sent to lower layer, vector(packetBytes)"
vector 208  OLSR.host[4].wlan[0].mac  rcvdPkFromHL:vector(packetBytes)  ETV
attr interpolationmode  none
attr source  packetReceivedFromUpper
attr title  "packets received from higher layer, vector(packetBytes)"
vector 207  OLSR.host[4].wlan[0].mac  sentDownPk:vector(packetBytes)  ETV
attr interpolationmode  none
attr source  packetSentToLower
attr title  "packets sent to lower layer, vector(packetBytes)"
vector 273  OLSR.host[3].wlan[0].radio  snirVector  ETV
vector 186  OLSR.host[3].wlan[0].mac  rcvdPkFromLL:vector(packetBytes)  ETV
attr interpolationmode  none
attr source  packetReceivedFromLower
attr title  "packets received from lower layer, vector(packetBytes)"
vector 183  OLSR.host[3].wlan[0].mac  passedUpPk:vector(packetBytes)  ETV
attr interpolationmode  none
attr source  packetSentToUpper
attr title  "packets passed to higher layer, vector(packetBytes)"
vector 17  OLSR.gw[0].wlan[0].mac  rcvdPkFromHL:vector(packetBytes)  ETV
attr interpolationmode  none
attr source  packetReceivedFromUpper
attr title  "packets received from higher layer, vector(packetBytes)"
vector 217  OLSR.gw[0].wlan[0].mac  "throughput AC0"  ETV
vector 16  OLSR.gw[0].wlan[0].mac  sentDownPk:vector(packetBytes)  ETV
attr interpolationmode  none
attr source  packetSentToLower
attr title  "packets sent to lower layer, vector(packetBytes)"
vector 259  OLSR.host[1].wlan[0].mac  "throughput AC0"  ETV
vector 261  OLSR.host[1].wlan[0].radio  snirVector  ETV
vector 140  OLSR.host[1].wlan[0].mac  rcvdPkFromLL:vector(packetBytes)  ETV
attr interpolationmode  none
attr source  packetReceivedFromLower
attr title  "packets received from lower layer, vector(packetBytes)"
vector 137  OLSR.host[1].wlan[0].mac  passedUpPk:vector(packetBytes)  ETV
attr interpolationmode  none
attr source  packetSentToUpper
attr title  "packets passed to higher layer, vector(packetBytes)"
vector 93  OLSR.gw[2].wlan[1].mac  rcvdPkFromHL:vector(packetBytes)  ETV
attr interpolationmode  none
attr source  packetReceivedFromUpper
attr title  "packets received from higher layer, vector(packetBytes)"
vector 92  OLSR.gw[2].wlan[1].mac  sentDownPk:vector(packetBytes)  ETV
attr interpolationmode  none
attr source  packetSentToLower
attr title  "packets sent to lower layer, vector(packetBytes)"
vector 162  OLSR.host[2].wlan[0].mac  rcvdPkFromHL:vector(packetBytes)  ETV
attr interpolationmode  none
attr source  packetReceivedFromUpper
attr title  "packets received from higher layer, vector(packetBytes)"
vector 161  OLSR.host[2].wlan[0].mac  sentDownPk:vector(packetBytes)  ETV
attr interpolationmode  none
attr source  packetSentToLower
attr title  "packets sent to lower layer, vector(packetBytes)"
vector 243  OLSR.gw[2].wlan[0].radio  snirVector  ETV
vector 84  OLSR.gw[2].wlan[0].mac  rcvdPkFromLL:vector(packetBytes)  ETV
attr interpolationmode  none
attr source  packetReceivedFromLower
attr title  "packets received from lower layer, vector(packetBytes)"
vector 81  OLSR.gw[2].wlan[0].mac  passedUpPk:vector(packetBytes)  ETV
attr interpolationmode  none
attr source  packetSentToUpper
attr title  "packets passed to higher layer, vector(packetBytes)"
vector 139  OLSR.host[1].wlan[0].mac  rcvdPkFromHL:vector(packetBytes)  ETV
attr interpolationmode  none
attr source  packetReceivedFromUpper
attr title  "packets received from higher layer, vector(packetBytes)"
vector 138  OLSR.host[1].wlan[0].mac  sentDownPk:vector(packetBytes)  ETV
attr interpolationmode  none
attr source  packetSentToLower
attr title  "packets sent to lower layer, vector(packetBytes)"
vector 253  OLSR.host[0].wlan[0].mac  "throughput AC0"  ETV
vector 219  OLSR.gw[0].wlan[0].radio  snirVector  ETV
vector 18  OLSR.gw[0].wlan[0].mac  rcvdPkFromLL:vector(packetBytes)  ETV
attr interpolationmode  none
attr source  packetReceivedFromLower
attr title  "packets received from lower layer, vector(packetBytes)"
vector 15  OLSR.gw[0].wlan[0].mac  passedUpPk:vector(packetBytes)  ETV
attr interpolationmode  none
attr source  packetSentToUpper
attr title  "packets passed to higher layer, vector(packetBytes)"
vector 255  OLSR.host[0].wlan[0].radio  snirVector  ETV
vector 117  OLSR.host[0].wlan[0].mac  rcvdPkFromLL:vector(packetBytes)  ETV
attr interpolationmode  none
attr source  packetReceivedFromLower
attr title  "packets received from lower layer, vector(packetBytes)"
vector 114  OLSR.host[0].wlan[0].mac  passedUpPk:vector(packetBytes)  ETV
attr interpolationmode  none
attr source  packetSentToUpper
attr title  "packets passed to higher layer, vector(packetBytes)"
vector 50  OLSR.gw[1].wlan[0].mac  rcvdPkFromHL:vector(packetBytes)  ETV
attr interpolationmode  none
attr source  packetReceivedFromUpper
attr title  "packets received from higher layer, vector(packetBytes)"
vector 229  OLSR.gw[1].wlan[0].mac  "throughput AC0"  ETV
vector 49  OLSR.gw[1].wlan[0].mac  sentDownPk:vector(packetBytes)  ETV
attr interpolationmode  none
attr source  packetSentToLower
attr title  "packets sent to lower layer, vector(packetBytes)"
vector 116  OLSR.host[0].wlan[0].mac  rcvdPkFromHL:vector(packetBytes)  ETV
attr interpolationmode  none
attr source  packetReceivedFromUpper
attr title  "packets received from higher layer, vector(packetBytes)"
vector 115  OLSR.host[0].wlan[0].mac  sentDownPk:vector(packetBytes)  ETV
attr interpolationmode  none
attr source  packetSentToLower
attr title  "packets sent to lower layer, vector(packetBytes)"
vector 190  OLSR.host[3].wlan[0].radio  lossRate:vector  ETV
attr interpolationmode  backward-sample-hold
attr title  "packet loss rate, vector"
vector 167  OLSR.host[2].wlan[0].radio  lossRate:vector  ETV
attr interpolationmode  backward-sample-hold
attr title  "packet loss rate, vector"
vector 65  OLSR.gw[1].wlan[1].radio  lossRate:vector  ETV
attr interpolationmode  backward-sample-hold
attr title  "packet loss rate, vector"
vector 144  OLSR.host[1].wlan[0].radio  lossRate:vector  ETV
attr interpolationmode  backward-sample-hold
attr title  "packet loss rate, vector"
vector 88  OLSR.gw[2].wlan[0].radio  lossRate:vector  ETV
attr interpolationmode  backward-sample-hold
attr title  "packet loss rate, vector"
vector 32  OLSR.gw[0].wlan[1].radio  lossRate:vector  ETV
attr interpolationmode  backward-sample-hold
attr title  "packet loss rate, vector"
vector 98  OLSR.gw[2].wlan[1].radio  lossRate:vector  ETV
attr interpolationmode  backward-sample-hold
attr title  "packet loss rate, vector"
vector 213  OLSR.host[4].wlan[0].radio  lossRate:vector  ETV
attr interpolationmode  backward-sample-hold
attr title  "packet loss rate, vector"
vector 22  OLSR.gw[0].wlan[0].radio  lossRate:vector  ETV
attr interpolationmode  backward-sample-hold
attr title  "packet loss rate, vector"
vector 121  OLSR.host[0].wlan[0].radio  lossRate:vector  ETV
attr interpolationmode  backward-sample-hold
attr title  "packet loss rate, vector"
vector 100  OLSR.host[0].udpApp[0]  sentPk:vector(packetBytes)  ETV
attr interpolationmode  none
attr source  sentPk
attr title  "packets sent, vector(packetBytes)"
vector 102  OLSR.host[0].udp  sentPk:vector(packetBytes)  ETV
attr interpolationmode  none
attr source  sentPk
attr title  "packets sent, vector(packetBytes)"
vector 107  OLSR.host[0].networkLayer.arp  sentReq:vector  ETV
attr title  "ARP request sent, vector"
vector 131  OLSR.host[1].networkLayer.arp  sentReply:vector  ETV
attr title  "ARP replies sent, vector"
vector 260  OLSR.host[1].wlan[0].mac  "Mac delay AC0"  ETV
vector 126  OLSR.host[1].udp  rcvdPk:vector(packetBytes)  ETV
attr interpolationmode  none
attr source  rcvdPk
attr title  "packets received, vector(packetBytes)"
vector 127  OLSR.host[1].udp  passedUpPk:vector(count)  ETV
attr interpolationmode  none
attr title  "packets passed up, vector(count)"
vector 122  OLSR.host[1].udpApp[0]  rcvdPk:vector(packetBytes)  ETV
attr interpolationmode  none
attr source  rcvdPk
attr title  "packets received, vector(packetBytes)"
vector 124  OLSR.host[1].udpApp[0]  rcvdPkLifetime:vector  ETV
attr interpolationmode  none
attr source  messageAge(rcvdPk)
attr title  "received packet lifetime, vector"
attr unit  s
vector 254  OLSR.host[0].wlan[0].mac  "Mac delay AC0"  ETV
vector 146  OLSR.host[2].udpApp[0]  sentPk:vector(packetBytes)  ETV
attr interpolationmode  none
attr source  sentPk
attr title  "packets sent, vector(packetBytes)"
vector 148  OLSR.host[2].udp  sentPk:vector(packetBytes)  ETV
attr interpolationmode  none
attr source  sentPk
attr title  "packets sent, vector(packetBytes)"
vector 153  OLSR.host[2].networkLayer.arp  sentReq:vector  ETV
attr title  "ARP request sent, vector"
vector 75  OLSR.gw[2].networkLayer.arp  sentReply:vector  ETV
attr title  "ARP replies sent, vector"
vector 242  OLSR.gw[2].wlan[0].mac  "Mac delay AC0"  ETV
vector 74  OLSR.gw[2].networkLayer.arp  sentReq:vector  ETV
attr title  "ARP request sent, vector"
vector 266  OLSR.host[2].wlan[0].mac  "Mac delay AC0"  ETV
vector 42  OLSR.gw[1].networkLayer.arp  sentReply:vector  ETV
attr title  "ARP replies sent, vector"
vector 236  OLSR.gw[1].wlan[1].mac  "Mac delay AC0"  ETV
vector 41  OLSR.gw[1].networkLayer.arp  sentReq:vector  ETV
attr title  "ARP request sent, vector"
vector 248  OLSR.gw[2].wlan[1].mac  "Mac delay AC0"  ETV
vector 9  OLSR.gw[0].networkLayer.arp  sentReply:vector  ETV
attr title  "ARP replies sent, vector"
vector 224  OLSR.gw[0].wlan[1].mac  "Mac delay AC0"  ETV
vector 8  OLSR.gw[0].networkLayer.arp  sentReq:vector  ETV
attr title  "ARP request sent, vector"
vector 258  OLSR.host[1].wlan[0].mac  "jitter AC0"  ETV
vector 252  OLSR.host[0].wlan[0].mac  "jitter AC0"  ETV
vector 218  OLSR.gw[0].wlan[0].mac  "Mac delay AC0"  ETV
vector 169  OLSR.host[3].udpApp[0]  sentPk:vector(packetBytes)  ETV
attr interpolationmode  none
attr source  sentPk
attr title  "packets sent, vector(packetBytes)"
vector 171  OLSR.host[3].udp  sentPk:vector(packetBytes)  ETV
attr interpolationmode  none
attr source  sentPk
attr title  "packets sent, vector(packetBytes)"
vector 176  OLSR.host[3].networkLayer.arp  sentReq:vector  ETV
attr title  "ARP request sent, vector"
vector 264  OLSR.host[2].wlan[0].mac  "jitter AC0"  ETV
vector 154  OLSR.host[2].networkLayer.arp  sentReply:vector  ETV
attr title  "ARP replies sent, vector"
vector 240  OLSR.gw[2].wlan[0].mac  "jitter AC0"  ETV
vector 272  OLSR.host[3].wlan[0].mac  "Mac delay AC0"  ETV
vector 246  OLSR.gw[2].wlan[1].mac  "jitter AC0"  ETV
vector 234  OLSR.gw[1].wlan[1].mac  "jitter AC0"  ETV
vector 37  OLSR.gw[1].udp  rcvdPk:vector(packetBytes)  ETV
attr interpolationmode  none
attr source  rcvdPk
attr title  "packets received, vector(packetBytes)"
vector 38  OLSR.gw[1].udp  passedUpPk:vector(count)  ETV
attr interpolationmode  none
attr title  "packets passed up, vector(count)"
vector 33  OLSR.gw[1].udpApp[0]  rcvdPk:vector(packetBytes)  ETV
attr interpolationmode  none
attr source  rcvdPk
attr title  "packets received, vector(packetBytes)"
vector 35  OLSR.gw[1].udpApp[0]  rcvdPkLifetime:vector  ETV
attr interpolationmode  none
attr source  messageAge(rcvdPk)
attr title  "received packet lifetime, vector"
attr unit  s
vector 222  OLSR.gw[0].wlan[1].mac  "jitter AC0"  ETV
vector 216  OLSR.gw[0].wlan[0].mac  "jitter AC0"  ETV
vector 270  OLSR.host[3].wlan[0].mac  "jitter AC0"  ETV
8	25545 108 23522 199860 100.220323501038 462.21624683391 4 1 1 4 4
9	25653 109 23479 199817 100.214249167474 462.210352500346 4 1 1 4 4
13	25762 9 0 0 0 0 1 0 0 0 0
15	25771 21522 251 243919 2.26201433087 599.433005218741 721 70 162 74386 7814084
16	47293 27829 176 243990 2.148817302627 599.856097641307 917 14 1094 488314 483775604
17	75122 27712 175 243989 2.148767302627 599.856047641307 913 70 1094 488258 483774820
18	102834 44928 251 243919 2.26201433087 599.433005218741 1525 14 162 85866 7990484
19	147762 15 0 0 0 0 1 2000000 2000000 2000000 4000000000000
20	147777 9 0 0 0 0 1 0 0 0 0
21	147786 138033 0 243995 0 599.857073641307 4885 0 2 3359 5193
22	285819 849 11410 238412 52.519154331134 578.091623956294 30 0 0 0 0
23	286668 9 0 0 0 0 1 0 0 0 0
25	286677 36475 117 243788 2.036608196136 599.05611600844 1198 70 1094 521548 487748600
26	323152 26834 90 243518 2.028406487862 598.407016331693 911 14 138 56614 5211996
27	349986 14994 89 243517 2.028356487862 598.406966331693 511 70 138 51014 5133596
28	364980 60358 117 243788 2.036608196136 599.05611600844 2005 14 1094 533014 487920884
29	425338 15 0 0 0 0 1 2000000 2000000 2000000 4000000000000
30	425353 9 0 0 0 0 1 2 2 2 4
31	425362 165783 0 243786 0 599.05611600844 5833 0 2 3827 5649
32	591145 1139 9548 242579 44.877195708061 594.384973432643 40 0 0 0 0
33	592284 12641 23783 218299 100.516166833919 499.514168500349 400 1024 1024 409600 419430400
35	604925 16641 23783 218299 100.516166833919 499.514168500349 400 0.014168500349 0.020268500349 5.741048776663 0.082745422686407
37	621566 12641 23782 218298 100.516166833919 499.514168500349 400 1032 1032 412800 426009600
38	634207 12133 23782 218298 100.516166833919 499.514168500349 400 1 400 80200 21413400
41	646340 114 23447 199786 100.212853000692 462.209236333564 4 1 1 4 4
42	646454 85 23405 199538 100.207298667128 461.514149167483 3 1 1 3 3
46	646539 9 0 0 0 0 1 0 0 0 0
49	646548 15043 269 243854 2.284072281877 599.334814102306 512 90 126 47900 4507296
50	661591 15043 268 243853 2.284022281877 599.334764102306 512 90 126 47900 4507296
52	676634 15 0 0 0 0 1 2000000 2000000 2000000 4000000000000
53	676649 9 0 0 0 0 1 4 4 4 16
54	676658 28916 0 243857 0 599.335758102306 1025 0 2 1024 2048
56	705574 9 0 0 0 0 1 0 0 0 0
58	705583 55252 97 243704 2.029446654643 598.721317059697 1818 70 1094 977312 967801000
59	760835 60364 109 243780 2.035568029355 599.055139841658 2005 14 1094 533014 487920884
60	821199 36564 108 243779 2.035518029355 599.055089841658 1201 70 1094 521758 487763300
61	857763 67304 97 243704 2.029446654643 598.721317059697 2225 14 1094 986334 971480100
62	925067 15 0 0 0 0 1 2000000 2000000 2000000 4000000000000
63	925082 9 0 0 0 0 1 2 2 2 4
64	925091 240606 0 243785 0 599.056115841658 8461 0 2 6235 10245
65	1165697 1266 6521 239770 31.634548009327 583.615380805249 44 0 0.02 0.08 0.0016
74	1166963 85 23374 199506 100.206496500346 461.513347000701 3 1 1 3 3
75	1167048 114 23325 199457 100.200802166782 461.507532667137 4 1 1 4 4
79	1167162 9 0 0 0 0 1 0 0 0 0
81	1167171 50525 226 243875 2.237890378146 599.387532010672 1646 70 1094 965020 967209880
82	1217696 39001 133 243934 2.070225388711 599.435811792523 1322 14 134 62548 5240264
83	1256697 15321 132 243933 2.070175388711 599.435761792523 522 70 134 51348 5083464
84	1272018 62734 226 243875 2.237890378146 599.387532010672 2058 14 1094 977380 974479880
85	1334752 15 0 0 0 0 1 2000000 2000000 2000000 4000000000000
86	1334767 9 0 0 0 0 1 1 1 1 1
87	1334776 192371 0 243940 0 599.436787792523 6761 0 2 4702 7346
88	1527147 1182 8964 242329 41.788856050984 593.511321470193 41 0 0.02 0.12 0.0024
89	1528329 9 0 0 0 0 1 0 0 0 0
91	1528338 23923 118 243789 2.036608196136 599.05611600844 801 70 170 84158 9028900
92	1552261 40581 198 243697 2.230789681399 598.720340892915 1318 14 1094 930132 966310712
93	1592842 40399 197 243696 2.230739681399 598.720290892915 1312 70 1094 926808 962719616
94	1633241 60358 118 243789 2.036608196136 599.05611600844 2005 14 1094 533014 487920884
95	1693599 15 0 0 0 0 1 2000000 2000000 2000000 4000000000000
96	1693614 9 0 0 0 0 1 2 2 2 4
97	1693623 189115 0 243787 0 599.05611600844 6647 0 2 4641 7277
98	1882738 1139 9549 242580 44.877195708061 594.384973432643 40 0 0 0 0
100	1883877 7841 23232 217977 100 499 400 1024 1024 409600 419430400
102	1891718 7841 23234 217978 100 499 400 1032 1032 412800 426009600